/*--------------------------------*- C++ -*----------------------------------*\
| =========                 |                                                 |
| \\      /  F ield         | OpenFOAM: The Open Source CFD Toolbox           |
|  \\    /   O peration     | Version:  2012                                  |
|   \\  /    A nd           | Website:  www.openfoam.com                      |
|    \\/     M anipulation  |                                                 |
\*---------------------------------------------------------------------------*/
FoamFile
{
    version     2.0;
    format      ascii;
    class       volScalarField;
    location    "0.05";
    object      H;
}
// * * * * * * * * * * * * * * * * * * * * * * * * * * * * * * * * * * * * * //

dimensions      [0 2 -2 0 0 0 0];


internalField   nonuniform List<scalar> 
100
(
-10088
-5772.57
-157.281
-117.245
-116.519
-115.621
-114.552
-113.314
-111.909
-110.341
-108.614
-106.733
-104.703
-102.53
-100.223
-97.789
-95.2367
-92.5753
-89.8147
-86.9652
-84.0375
-81.0427
-77.9923
-74.8978
-71.7709
-68.6234
-65.4671
-62.3134
-59.1738
-56.0594
-52.9807
-49.9481
-46.9713
-44.0593
-41.2206
-38.463
-35.7933
-33.2178
-30.7418
-28.3698
-26.1055
-23.9516
-21.9101
-19.9822
-18.168
-16.4673
-14.8787
-13.4005
-12.0301
-10.7646
-9.60038
-8.53352
-7.55969
-6.6743
-5.8725
-5.14932
-4.49967
-3.91844
-3.40053
-2.94093
-2.53473
-2.1772
-1.86379
-1.59016
-1.35223
-1.14617
-0.968408
-0.815662
-0.684912
-0.57341
-0.478671
-0.39846
-0.330784
-0.273874
-0.22617
-0.186306
-0.15309
-0.125492
-0.102623
-0.0837199
-0.0681332
-0.055311
-0.0447867
-0.0361672
-0.0291229
-0.0233781
-0.0187026
-0.0149054
-0.0118277
-0.00933797
-0.00732756
-0.00570668
-0.0044013
-0.00335044
-0.00250392
-0.00182049
-0.00126626
-0.000813431
-0.000439185
-0.000145549
)
;

boundaryField
{
    BotWall
    {
        type            zeroGradient;
    }
    FreeStream
    {
        type            zeroGradient;
    }
    FrontNBack
    {
        type            empty;
    }
    LeftSide
    {
        type            symmetryPlane;
    }
    RightSide
    {
        type            symmetryPlane;
    }
}


// ************************************************************************* //
