/*--------------------------------*- C++ -*----------------------------------*\
| =========                 |                                                 |
| \\      /  F ield         | OpenFOAM: The Open Source CFD Toolbox           |
|  \\    /   O peration     | Version:  2012                                  |
|   \\  /    A nd           | Website:  www.openfoam.com                      |
|    \\/     M anipulation  |                                                 |
\*---------------------------------------------------------------------------*/
FoamFile
{
    version     2.0;
    format      ascii;
    class       volScalarField;
    location    "0.05";
    object      p;
}
// * * * * * * * * * * * * * * * * * * * * * * * * * * * * * * * * * * * * * //

dimensions      [1 -1 -2 0 0 0 0];


internalField   nonuniform List<scalar> 
100
(
0.0477367
0.0631925
-0.135015
-0.0171573
0.00272053
-0.00162525
-0.00434094
-0.00505617
-0.00541215
-0.00588163
-0.00642369
-0.00697846
-0.00753417
-0.00809398
-0.00866002
-0.00923259
-0.00981161
-0.0103971
-0.0109891
-0.0115877
-0.012193
-0.012805
-0.0134239
-0.0140497
-0.0146824
-0.0153222
-0.0159692
-0.0166234
-0.0172848
-0.0179537
-0.01863
-0.0193139
-0.0200054
-0.0207046
-0.0214116
-0.0221265
-0.0228494
-0.0235804
-0.0243195
-0.0250668
-0.0258225
-0.0265867
-0.0273593
-0.0281406
-0.0289306
-0.0297294
-0.0305371
-0.0313539
-0.0321797
-0.0330148
-0.0338592
-0.034713
-0.0355763
-0.0364493
-0.037332
-0.0382246
-0.0391271
-0.0400397
-0.0409625
-0.0418955
-0.042839
-0.043793
-0.0447577
-0.0457331
-0.0467194
-0.0477168
-0.0487252
-0.0497449
-0.050776
-0.0518186
-0.0528728
-0.0539388
-0.0550166
-0.0561065
-0.0572086
-0.058323
-0.0594498
-0.0605891
-0.0617412
-0.0629062
-0.0640841
-0.0652752
-0.0664796
-0.0676974
-0.0689288
-0.0701739
-0.071433
-0.0727061
-0.0739934
-0.075295
-0.0766112
-0.0779421
-0.0792878
-0.0806486
-0.0820245
-0.0834158
-0.0848226
-0.0862451
-0.0876835
-0.0891378
)
;

boundaryField
{
    BotWall
    {
        type            calculated;
        value           uniform 0.062557;
    }
    FreeStream
    {
        type            calculated;
        value           uniform -0.089869;
    }
    FrontNBack
    {
        type            empty;
    }
    LeftSide
    {
        type            symmetryPlane;
    }
    RightSide
    {
        type            symmetryPlane;
    }
}


// ************************************************************************* //
