/*--------------------------------*- C++ -*----------------------------------*\
| =========                 |                                                 |
| \\      /  F ield         | OpenFOAM: The Open Source CFD Toolbox           |
|  \\    /   O peration     | Version:  2012                                  |
|   \\  /    A nd           | Website:  www.openfoam.com                      |
|    \\/     M anipulation  |                                                 |
\*---------------------------------------------------------------------------*/
FoamFile
{
    version     2.0;
    format      ascii;
    class       volScalarField;
    location    "0.05";
    object      p_rgh;
}
// * * * * * * * * * * * * * * * * * * * * * * * * * * * * * * * * * * * * * //

dimensions      [1 -1 -2 0 0 0 0];


internalField   nonuniform List<scalar> 
100
(
0.062557
0.107819
-0.100161
-0.0154141
0.00497411
0.00114443
-0.00104939
-0.00123693
-0.00105933
-0.000989274
-0.000985782
-0.000988912
-0.000986831
-0.000982618
-0.000978343
-0.000974235
-0.00097014
-0.000965994
-0.000961793
-0.000957543
-0.000953247
-0.000948903
-0.000944511
-0.00094007
-0.000935579
-0.000931037
-0.000926445
-0.000921803
-0.000917108
-0.000912361
-0.000907561
-0.000902707
-0.000897799
-0.000892836
-0.000887818
-0.000882744
-0.000877614
-0.000872426
-0.00086718
-0.000861875
-0.000856512
-0.000851089
-0.000845605
-0.00084006
-0.000834453
-0.000828783
-0.000823051
-0.000817254
-0.000811392
-0.000805465
-0.000799472
-0.000793412
-0.000787285
-0.000781089
-0.000774824
-0.000768489
-0.000762084
-0.000755606
-0.000749057
-0.000742434
-0.000735738
-0.000728967
-0.00072212
-0.000715197
-0.000708197
-0.000701119
-0.000693961
-0.000686724
-0.000679406
-0.000672006
-0.000664524
-0.000656958
-0.000649308
-0.000641572
-0.00063375
-0.000625841
-0.000617844
-0.000609757
-0.00060158
-0.000593312
-0.000584952
-0.000576498
-0.00056795
-0.000559306
-0.000550566
-0.000541729
-0.000532793
-0.000523757
-0.000514621
-0.000505382
-0.000496041
-0.000486595
-0.000477043
-0.000467385
-0.00045762
-0.000447745
-0.000437762
-0.00042767
-0.000417458
-0.00040708
)
;

boundaryField
{
    BotWall
    {
        type            fixedFluxPressure;
        gradient        uniform 0;
        value           uniform 0.062557;
    }
    FreeStream
    {
        type            totalPressure;
        rho             rho;
        psi             none;
        gamma           1;
        p0              uniform 0;
        value           uniform -0.000401845;
    }
    FrontNBack
    {
        type            empty;
    }
    LeftSide
    {
        type            symmetryPlane;
    }
    RightSide
    {
        type            symmetryPlane;
    }
}


// ************************************************************************* //
