/*--------------------------------*- C++ -*----------------------------------*\
| =========                 |                                                 |
| \\      /  F ield         | OpenFOAM: The Open Source CFD Toolbox           |
|  \\    /   O peration     | Version:  2012                                  |
|   \\  /    A nd           | Website:  www.openfoam.com                      |
|    \\/     M anipulation  |                                                 |
\*---------------------------------------------------------------------------*/
FoamFile
{
    version     2.0;
    format      ascii;
    class       volVectorField;
    location    "0.05";
    object      U;
}
// * * * * * * * * * * * * * * * * * * * * * * * * * * * * * * * * * * * * * //

dimensions      [0 1 -1 0 0 0 0];


internalField   nonuniform List<vector> 
100
(
(-1.30971e-25 -0.000127628 0)
(-2.50937e-25 0.000432121 0)
(1.20459e-25 -0.00141332 0)
(2.0911e-24 -0.0103579 0)
(1.20408e-23 -0.0124275 0)
(2.14603e-23 -0.00965857 0)
(2.96669e-23 -0.00917449 0)
(3.45294e-23 -0.00930051 0)
(2.59965e-23 -0.00938707 0)
(-1.92867e-23 -0.00939716 0)
(-1.31867e-22 -0.00939055 0)
(-1.79277e-21 -0.00938772 0)
(-3.31821e-21 -0.00938764 0)
(-3.0365e-21 -0.00938793 0)
(-5.18041e-21 -0.00938801 0)
(-7.27975e-21 -0.00938801 0)
(-6.63182e-21 -0.00938799 0)
(-6.13274e-21 -0.00938799 0)
(-5.73736e-21 -0.00938799 0)
(-5.42694e-21 -0.00938799 0)
(-5.07485e-21 -0.00938799 0)
(-4.45844e-21 -0.00938799 0)
(-6.3687e-21 -0.00938799 0)
(-8.21704e-21 -0.00938799 0)
(-7.44115e-21 -0.00938799 0)
(-7.00401e-21 -0.00938799 0)
(-6.68087e-21 -0.00938799 0)
(-6.38745e-21 -0.00938799 0)
(-6.10921e-21 -0.00938799 0)
(-5.86678e-21 -0.00938799 0)
(-5.65763e-21 -0.00938799 0)
(-5.48066e-21 -0.00938799 0)
(-5.33234e-21 -0.00938799 0)
(-5.21751e-21 -0.00938799 0)
(-5.17319e-21 -0.00938799 0)
(-5.28701e-21 -0.00938799 0)
(-8.53153e-21 -0.00938799 0)
(-1.16097e-20 -0.00938799 0)
(-1.12339e-20 -0.00938799 0)
(-1.07904e-20 -0.00938799 0)
(-1.03755e-20 -0.00938799 0)
(-1.00062e-20 -0.00938799 0)
(-9.7144e-21 -0.00938799 0)
(-9.47119e-21 -0.00938799 0)
(-9.25848e-21 -0.00938799 0)
(-9.05697e-21 -0.00938799 0)
(-8.98992e-21 -0.00938799 0)
(-5.53998e-21 -0.00938799 0)
(-2.34354e-21 -0.00938799 0)
(-3.03607e-21 -0.00938799 0)
(-3.62643e-21 -0.00938799 0)
(-4.24244e-21 -0.00938799 0)
(-4.89467e-21 -0.00938799 0)
(-5.5136e-21 -0.00938799 0)
(-6.13219e-21 -0.00938799 0)
(-6.76514e-21 -0.00938799 0)
(-7.38974e-21 -0.00938799 0)
(-8.03193e-21 -0.00938799 0)
(-8.71343e-21 -0.00938799 0)
(-9.37631e-21 -0.00938799 0)
(-1.00218e-20 -0.00938799 0)
(-1.38494e-20 -0.00938799 0)
(-1.3956e-20 -0.00938799 0)
(-1.08288e-20 -0.00938799 0)
(-1.15822e-20 -0.00938799 0)
(-1.23105e-20 -0.00938799 0)
(-1.30611e-20 -0.00938799 0)
(-1.38118e-20 -0.00938799 0)
(-1.45508e-20 -0.00938799 0)
(-1.5151e-20 -0.00938799 0)
(-1.26828e-20 -0.00938799 0)
(-1.05152e-20 -0.00938799 0)
(-1.18853e-20 -0.00938799 0)
(-1.3254e-20 -0.00938799 0)
(-1.45698e-20 -0.00938799 0)
(-1.58764e-20 -0.00938799 0)
(-1.71674e-20 -0.00938799 0)
(-1.48943e-20 -0.00938799 0)
(-1.28899e-20 -0.00938799 0)
(-1.47342e-20 -0.00938799 0)
(-1.96563e-20 -0.00938799 0)
(-2.43611e-20 -0.00938799 0)
(-2.49948e-20 -0.00938799 0)
(-2.57573e-20 -0.00938799 0)
(-2.65404e-20 -0.00938799 0)
(-2.73189e-20 -0.00938799 0)
(-2.80953e-20 -0.00938799 0)
(-2.8919e-20 -0.00938799 0)
(-2.96848e-20 -0.00938799 0)
(-3.04576e-20 -0.00938799 0)
(-3.12223e-20 -0.00938799 0)
(-3.19544e-20 -0.00938799 0)
(-3.27313e-20 -0.00938799 0)
(-4.03725e-20 -0.00938799 0)
(-4.7398e-20 -0.00938799 0)
(-4.62949e-20 -0.00938799 0)
(-4.53719e-20 -0.00938799 0)
(-4.47651e-20 -0.009388 0)
(-4.44309e-20 -0.00938801 0)
(-4.42766e-20 -0.00938797 0)
)
;

boundaryField
{
    BotWall
    {
        type            fixedValue;
        value           uniform (0 0 0);
    }
    FreeStream
    {
        type            zeroGradient;
    }
    FrontNBack
    {
        type            empty;
    }
    LeftSide
    {
        type            symmetryPlane;
    }
    RightSide
    {
        type            symmetryPlane;
    }
}


// ************************************************************************* //
