/*--------------------------------*- C++ -*----------------------------------*\
| =========                 |                                                 |
| \\      /  F ield         | OpenFOAM: The Open Source CFD Toolbox           |
|  \\    /   O peration     | Version:  2012                                  |
|   \\  /    A nd           | Website:  www.openfoam.com                      |
|    \\/     M anipulation  |                                                 |
\*---------------------------------------------------------------------------*/
FoamFile
{
    version     2.0;
    format      ascii;
    class       volScalarField;
    location    "0.01";
    object      H;
}
// * * * * * * * * * * * * * * * * * * * * * * * * * * * * * * * * * * * * * //

dimensions      [0 2 -2 0 0 0 0];


internalField   nonuniform List<scalar> 
100
(
-9680.27
-1202.71
-940.618
-923.419
-895.931
-859.491
-815.559
-765.671
-711.378
-654.192
-595.55
-536.763
-478.997
-423.242
-370.31
-320.825
-275.229
-233.796
-196.644
-163.761
-135.021
-110.212
-89.056
-71.2313
-56.3921
-44.1844
-34.26
-26.2866
-19.9561
-14.989
-11.1378
-8.18695
-5.95282
-4.28141
-3.04586
-2.1434
-1.49208
-1.02759
-0.700256
-0.472282
-0.315345
-0.208534
-0.136645
-0.0887754
-0.0572252
-0.0366301
-0.023305
-0.0147524
-0.00930122
-0.00584704
-0.00366842
-0.00229897
-0.00144004
-0.000901911
-0.000564847
-0.000353655
-0.000221254
-0.000138213
-8.61335e-05
-5.34972e-05
-3.30816e-05
-2.03471e-05
-1.24356e-05
-7.54575e-06
-4.54214e-06
-2.71038e-06
-1.60228e-06
-9.37868e-07
-5.43248e-07
-3.11257e-07
-1.76339e-07
-9.87182e-08
-5.46094e-08
-2.98367e-08
-1.60904e-08
-8.56381e-09
-4.50512e-09
-2.32979e-09
-1.1874e-09
-5.88317e-10
-2.91078e-10
-1.50356e-10
-6.60603e-11
-4.90924e-11
-3.56135e-11
-1.1021e-12
-4.11209e-15
-1.61999e-14
-2.01627e-15
-1.42833e-16
-1.2944e-17
-1.4056e-18
-1.3152e-19
-1.15963e-20
-1.04946e-21
-9.29343e-23
-7.90762e-24
-6.63331e-25
-5.50163e-26
-5.59552e-27
)
;

boundaryField
{
    BotWall
    {
        type            zeroGradient;
    }
    FreeStream
    {
        type            zeroGradient;
    }
    FrontNBack
    {
        type            empty;
    }
    LeftSide
    {
        type            symmetryPlane;
    }
    RightSide
    {
        type            symmetryPlane;
    }
}


// ************************************************************************* //
