/*--------------------------------*- C++ -*----------------------------------*\
| =========                 |                                                 |
| \\      /  F ield         | OpenFOAM: The Open Source CFD Toolbox           |
|  \\    /   O peration     | Version:  2012                                  |
|   \\  /    A nd           | Website:  www.openfoam.com                      |
|    \\/     M anipulation  |                                                 |
\*---------------------------------------------------------------------------*/
FoamFile
{
    version     2.0;
    format      ascii;
    class       volScalarField;
    location    "0.01";
    object      p;
}
// * * * * * * * * * * * * * * * * * * * * * * * * * * * * * * * * * * * * * //

dimensions      [1 -1 -2 0 0 0 0];


internalField   nonuniform List<scalar> 
100
(
0.178637
-0.0684092
-0.0112215
-0.00498132
-0.00823053
-0.00996296
-0.0104911
-0.0108631
-0.0113209
-0.0118225
-0.0123314
-0.0128425
-0.0133582
-0.0138797
-0.0144072
-0.0149406
-0.0154799
-0.0160252
-0.0165767
-0.0171342
-0.017698
-0.0182681
-0.0188446
-0.0194275
-0.0200168
-0.0206128
-0.0212154
-0.0218248
-0.0224409
-0.0230639
-0.0236939
-0.0243309
-0.024975
-0.0256263
-0.0262848
-0.0269507
-0.0276241
-0.0283049
-0.0289934
-0.0296895
-0.0303934
-0.0311052
-0.0318249
-0.0325526
-0.0332885
-0.0340325
-0.0347849
-0.0355456
-0.0363149
-0.0370927
-0.0378792
-0.0386745
-0.0394787
-0.0402918
-0.041114
-0.0419454
-0.0427861
-0.0436361
-0.0444957
-0.0453648
-0.0462436
-0.0471322
-0.0480308
-0.0489393
-0.049858
-0.050787
-0.0517263
-0.0526761
-0.0536365
-0.0546077
-0.0555896
-0.0565825
-0.0575865
-0.0586017
-0.0596283
-0.0606662
-0.0617158
-0.0627771
-0.0638502
-0.0649353
-0.0660325
-0.067142
-0.0682638
-0.0693981
-0.0705451
-0.0717049
-0.0728777
-0.0740635
-0.0752626
-0.076475
-0.077701
-0.0789407
-0.0801941
-0.0814616
-0.0827432
-0.0840392
-0.0853496
-0.0866746
-0.0880144
-0.0893684
)
;

boundaryField
{
    BotWall
    {
        type            calculated;
        value           uniform 0.193457;
    }
    FreeStream
    {
        type            calculated;
        value           uniform -0.090049;
    }
    FrontNBack
    {
        type            empty;
    }
    LeftSide
    {
        type            symmetryPlane;
    }
    RightSide
    {
        type            symmetryPlane;
    }
}


// ************************************************************************* //
