/*--------------------------------*- C++ -*----------------------------------*\
| =========                 |                                                 |
| \\      /  F ield         | OpenFOAM: The Open Source CFD Toolbox           |
|  \\    /   O peration     | Version:  2012                                  |
|   \\  /    A nd           | Website:  www.openfoam.com                      |
|    \\/     M anipulation  |                                                 |
\*---------------------------------------------------------------------------*/
FoamFile
{
    version     2.0;
    format      ascii;
    class       volScalarField;
    location    "0.01";
    object      p_rgh;
}
// * * * * * * * * * * * * * * * * * * * * * * * * * * * * * * * * * * * * * //

dimensions      [1 -1 -2 0 0 0 0];


internalField   nonuniform List<scalar> 
100
(
0.193457
-0.0651664
-0.00998315
-0.00323815
-0.00597695
-0.00719327
-0.00719959
-0.00704389
-0.00696813
-0.00693013
-0.00689351
-0.00685299
-0.00681089
-0.00676838
-0.00672553
-0.00668223
-0.00663844
-0.00659416
-0.00654937
-0.00650409
-0.00645831
-0.00641202
-0.00636521
-0.00631788
-0.00627002
-0.00622162
-0.00617269
-0.00612321
-0.00607318
-0.00602258
-0.00597143
-0.0059197
-0.0058674
-0.00581451
-0.00576104
-0.00570696
-0.00565228
-0.00559699
-0.00554109
-0.00548456
-0.0054274
-0.0053696
-0.00531116
-0.00525206
-0.00519231
-0.00513189
-0.00507079
-0.00500902
-0.00494655
-0.00488339
-0.00481952
-0.00475494
-0.00468964
-0.00462361
-0.00455684
-0.00448933
-0.00442106
-0.00435203
-0.00428224
-0.00421166
-0.0041403
-0.00406814
-0.00399517
-0.00392139
-0.00384679
-0.00377135
-0.00369508
-0.00361795
-0.00353996
-0.0034611
-0.00338136
-0.00330073
-0.0032192
-0.00313677
-0.00305341
-0.00296912
-0.00288389
-0.00279771
-0.00271057
-0.00262245
-0.00253335
-0.00244326
-0.00235216
-0.00226005
-0.00216691
-0.00207272
-0.00197749
-0.0018812
-0.00178383
-0.00168537
-0.00158582
-0.00148515
-0.00138337
-0.00128044
-0.00117636
-0.00107113
-0.000964745
-0.000857209
-0.000748366
-0.000637653
)
;

boundaryField
{
    BotWall
    {
        type            fixedFluxPressure;
        gradient        uniform 0;
        value           uniform 0.193457;
    }
    FreeStream
    {
        type            totalPressure;
        rho             rho;
        psi             none;
        gamma           1;
        p0              uniform 0;
        value           uniform -0.000581777;
    }
    FrontNBack
    {
        type            empty;
    }
    LeftSide
    {
        type            symmetryPlane;
    }
    RightSide
    {
        type            symmetryPlane;
    }
}


// ************************************************************************* //
