/*--------------------------------*- C++ -*----------------------------------*\
| =========                 |                                                 |
| \\      /  F ield         | OpenFOAM: The Open Source CFD Toolbox           |
|  \\    /   O peration     | Version:  2012                                  |
|   \\  /    A nd           | Website:  www.openfoam.com                      |
|    \\/     M anipulation  |                                                 |
\*---------------------------------------------------------------------------*/
FoamFile
{
    version     2.0;
    format      ascii;
    class       volVectorField;
    location    "0.01";
    object      U;
}
// * * * * * * * * * * * * * * * * * * * * * * * * * * * * * * * * * * * * * //

dimensions      [0 1 -1 0 0 0 0];


internalField   nonuniform List<vector> 
100
(
(-1.19611e-23 3.93515e-05 0)
(-5.42255e-23 -0.00145921 0)
(-3.39773e-22 -0.0142353 0)
(-7.58923e-22 -0.0129044 0)
(-1.1302e-21 -0.0113823 0)
(-1.46203e-21 -0.011156 0)
(-1.77498e-21 -0.0112543 0)
(-2.05505e-21 -0.0113036 0)
(-2.31343e-21 -0.0113069 0)
(-2.52494e-21 -0.0113024 0)
(-2.57393e-21 -0.0113009 0)
(-4.96624e-21 -0.0113009 0)
(-7.081e-21 -0.0113011 0)
(-6.47126e-21 -0.0113012 0)
(-8.82138e-21 -0.0113012 0)
(-1.10265e-20 -0.0113012 0)
(-1.01421e-20 -0.0113011 0)
(-9.45345e-21 -0.0113011 0)
(-8.87038e-21 -0.0113011 0)
(-8.35185e-21 -0.0113012 0)
(-7.88966e-21 -0.0113011 0)
(-7.47961e-21 -0.0113011 0)
(-9.0942e-21 -0.0113011 0)
(-1.0597e-20 -0.0113011 0)
(-9.92447e-21 -0.0113011 0)
(-9.24076e-21 -0.0113011 0)
(-8.5787e-21 -0.0113011 0)
(-7.95835e-21 -0.0113011 0)
(-7.36308e-21 -0.0113011 0)
(-6.78497e-21 -0.0113011 0)
(-6.23693e-21 -0.0113012 0)
(-5.69261e-21 -0.0113011 0)
(-5.11922e-21 -0.0113011 0)
(-4.57345e-21 -0.0113011 0)
(-4.06772e-21 -0.0113011 0)
(-3.70945e-21 -0.0113011 0)
(-7.25814e-21 -0.0113011 0)
(-1.04867e-20 -0.0113011 0)
(-9.34129e-21 -0.0113011 0)
(-8.10593e-21 -0.0113011 0)
(-6.97203e-21 -0.0113011 0)
(-5.94534e-21 -0.0113011 0)
(-5.03486e-21 -0.0113011 0)
(-4.22088e-21 -0.0113011 0)
(-3.52642e-21 -0.0113011 0)
(-2.94334e-21 -0.0113011 0)
(-2.32615e-21 -0.0113011 0)
(2.5797e-21 -0.0113011 0)
(6.80495e-21 -0.0113012 0)
(6.32067e-21 -0.0113011 0)
(5.77298e-21 -0.0113011 0)
(5.31622e-21 -0.0113012 0)
(4.9362e-21 -0.0113011 0)
(4.60928e-21 -0.0113011 0)
(4.36043e-21 -0.0113011 0)
(4.16622e-21 -0.0113011 0)
(4.03378e-21 -0.0113011 0)
(3.9813e-21 -0.0113011 0)
(4.03353e-21 -0.0113011 0)
(4.18534e-21 -0.0113011 0)
(4.16924e-21 -0.0113011 0)
(6.90077e-22 -0.0113011 0)
(1.97071e-21 -0.0113011 0)
(6.53693e-21 -0.0113011 0)
(6.27156e-21 -0.0113011 0)
(6.30282e-21 -0.0113011 0)
(6.31641e-21 -0.0113011 0)
(6.22759e-21 -0.0113011 0)
(6.01187e-21 -0.0113011 0)
(5.68627e-21 -0.0113011 0)
(9.68636e-21 -0.0113011 0)
(1.31095e-20 -0.0113011 0)
(1.13298e-20 -0.0113011 0)
(9.78235e-21 -0.0113011 0)
(8.33026e-21 -0.0113011 0)
(7.08006e-21 -0.0113011 0)
(6.33656e-21 -0.0113011 0)
(8.03632e-21 -0.0113011 0)
(9.4316e-21 -0.0113011 0)
(7.8514e-21 -0.0113011 0)
(2.54064e-21 -0.0113011 0)
(-2.18002e-21 -0.0113011 0)
(-2.70715e-21 -0.0113011 0)
(-3.08194e-21 -0.0113011 0)
(-3.51267e-21 -0.0113011 0)
(-3.9743e-21 -0.0113011 0)
(-4.45874e-21 -0.0113011 0)
(-5.01532e-21 -0.0113011 0)
(-5.54694e-21 -0.0113011 0)
(-6.07586e-21 -0.0113011 0)
(-6.50517e-21 -0.0113011 0)
(-6.755e-21 -0.0113011 0)
(-6.87611e-21 -0.0113012 0)
(-1.48134e-20 -0.0113011 0)
(-2.15893e-20 -0.0113011 0)
(-1.89933e-20 -0.0113011 0)
(-1.67144e-20 -0.0113011 0)
(-1.50738e-20 -0.0113012 0)
(-1.41171e-20 -0.0113014 0)
(-1.36546e-20 -0.0113008 0)
)
;

boundaryField
{
    BotWall
    {
        type            fixedValue;
        value           uniform (0 0 0);
    }
    FreeStream
    {
        type            zeroGradient;
    }
    FrontNBack
    {
        type            empty;
    }
    LeftSide
    {
        type            symmetryPlane;
    }
    RightSide
    {
        type            symmetryPlane;
    }
}


// ************************************************************************* //
