/*--------------------------------*- C++ -*----------------------------------*\
| =========                 |                                                 |
| \\      /  F ield         | OpenFOAM: The Open Source CFD Toolbox           |
|  \\    /   O peration     | Version:  2012                                  |
|   \\  /    A nd           | Website:  www.openfoam.com                      |
|    \\/     M anipulation  |                                                 |
\*---------------------------------------------------------------------------*/
FoamFile
{
    version     2.0;
    format      ascii;
    class       volScalarField;
    location    "0.02";
    object      H;
}
// * * * * * * * * * * * * * * * * * * * * * * * * * * * * * * * * * * * * * //

dimensions      [0 2 -2 0 0 0 0];


internalField   nonuniform List<scalar> 
100
(
-8884.82
-241.723
-178.304
-173.749
-169.071
-164.269
-159.345
-154.301
-149.145
-143.885
-138.533
-133.1
-127.602
-122.054
-116.474
-110.879
-105.289
-99.7224
-94.199
-88.7379
-83.3581
-78.0779
-72.9148
-67.8856
-63.0055
-58.2886
-53.7475
-49.3931
-45.2348
-41.28
-37.5345
-34.0022
-30.6854
-27.5844
-24.6982
-22.0238
-19.5572
-17.2928
-15.2238
-13.3425
-11.6402
-10.1077
-8.73491
-7.51167
-6.4274
-5.47149
-4.63336
-3.9026
-3.26908
-2.72307
-2.25526
-1.85687
-1.5197
-1.23613
-0.999178
-0.802474
-0.640275
-0.507442
-0.399414
-0.312186
-0.242264
-0.186629
-0.142697
-0.108274
-0.0815152
-0.0608807
-0.0450997
-0.0331317
-0.0241331
-0.0174262
-0.0124719
-0.0088455
-0.00621568
-0.00432661
-0.00298274
-0.00203613
-0.00137605
-0.000920474
-0.000609326
-0.000399081
-0.000258556
-0.000165669
-0.000104962
-6.57403e-05
-4.06963e-05
-2.48948e-05
-1.50454e-05
-8.9816e-06
-5.29499e-06
-3.08215e-06
-1.77105e-06
-1.00437e-06
-5.62017e-07
-3.10149e-07
-1.68665e-07
-9.01642e-08
-4.70632e-08
-2.34597e-08
-1.02815e-08
-3.12725e-09
)
;

boundaryField
{
    BotWall
    {
        type            zeroGradient;
    }
    FreeStream
    {
        type            zeroGradient;
    }
    FrontNBack
    {
        type            empty;
    }
    LeftSide
    {
        type            symmetryPlane;
    }
    RightSide
    {
        type            symmetryPlane;
    }
}


// ************************************************************************* //
