/*--------------------------------*- C++ -*----------------------------------*\
| =========                 |                                                 |
| \\      /  F ield         | OpenFOAM: The Open Source CFD Toolbox           |
|  \\    /   O peration     | Version:  2012                                  |
|   \\  /    A nd           | Website:  www.openfoam.com                      |
|    \\/     M anipulation  |                                                 |
\*---------------------------------------------------------------------------*/
FoamFile
{
    version     2.0;
    format      ascii;
    class       volScalarField;
    location    "0.02";
    object      p;
}
// * * * * * * * * * * * * * * * * * * * * * * * * * * * * * * * * * * * * * //

dimensions      [1 -1 -2 0 0 0 0];


internalField   nonuniform List<scalar> 
100
(
108.977
-0.217796
-0.0274538
0.00424543
-0.0022143
-0.00612633
-0.00693468
-0.00718404
-0.00760263
-0.00812797
-0.00866927
-0.00920882
-0.00975128
-0.0102998
-0.0108547
-0.0114159
-0.0119834
-0.0125571
-0.0131373
-0.013724
-0.0143172
-0.014917
-0.0155235
-0.0161368
-0.0167569
-0.0173839
-0.018018
-0.0186591
-0.0193073
-0.0199628
-0.0206257
-0.0212959
-0.0219736
-0.0226588
-0.0233517
-0.0240523
-0.0247608
-0.0254771
-0.0262015
-0.0269339
-0.0276745
-0.0284234
-0.0291806
-0.0299463
-0.0307205
-0.0315034
-0.032295
-0.0330954
-0.0339048
-0.0347232
-0.0355507
-0.0363875
-0.0372335
-0.0380891
-0.0389542
-0.0398289
-0.0407134
-0.0416078
-0.0425121
-0.0434266
-0.0443512
-0.0452862
-0.0462316
-0.0471875
-0.0481541
-0.0491315
-0.0501198
-0.0511192
-0.0521297
-0.0531514
-0.0541846
-0.0552293
-0.0562856
-0.0573538
-0.0584338
-0.0595259
-0.0606302
-0.0617468
-0.0628759
-0.0640176
-0.065172
-0.0663393
-0.0675197
-0.0687132
-0.06992
-0.0711402
-0.0723741
-0.0736218
-0.0748834
-0.0761591
-0.077449
-0.0787533
-0.0800721
-0.0814057
-0.0827541
-0.0841176
-0.0854964
-0.0868905
-0.0883001
-0.0897252
)
;

boundaryField
{
    BotWall
    {
        type            calculated;
        value           uniform 108.992;
    }
    FreeStream
    {
        type            calculated;
        value           uniform -0.0904416;
    }
    FrontNBack
    {
        type            empty;
    }
    LeftSide
    {
        type            symmetryPlane;
    }
    RightSide
    {
        type            symmetryPlane;
    }
}


// ************************************************************************* //
