/*--------------------------------*- C++ -*----------------------------------*\
| =========                 |                                                 |
| \\      /  F ield         | OpenFOAM: The Open Source CFD Toolbox           |
|  \\    /   O peration     | Version:  2012                                  |
|   \\  /    A nd           | Website:  www.openfoam.com                      |
|    \\/     M anipulation  |                                                 |
\*---------------------------------------------------------------------------*/
FoamFile
{
    version     2.0;
    format      ascii;
    class       volScalarField;
    location    "0.02";
    object      p_rgh;
}
// * * * * * * * * * * * * * * * * * * * * * * * * * * * * * * * * * * * * * //

dimensions      [1 -1 -2 0 0 0 0];


internalField   nonuniform List<scalar> 
100
(
108.992
-0.19694
-0.0262154
0.0059886
3.92764e-05
-0.00335664
-0.00364312
-0.0033648
-0.00324981
-0.00323562
-0.00323136
-0.00321928
-0.00320394
-0.00318841
-0.00317302
-0.00315755
-0.00314189
-0.00312604
-0.00311001
-0.00309381
-0.00307743
-0.00306086
-0.00304411
-0.00302717
-0.00301004
-0.00299273
-0.00297522
-0.00295751
-0.00293961
-0.0029215
-0.00290319
-0.00288468
-0.00286597
-0.00284704
-0.0028279
-0.00280855
-0.00278899
-0.0027692
-0.0027492
-0.00272897
-0.00270851
-0.00268783
-0.00266692
-0.00264577
-0.00262438
-0.00260276
-0.0025809
-0.00255879
-0.00253644
-0.00251384
-0.00249098
-0.00246787
-0.0024445
-0.00242087
-0.00239698
-0.00237282
-0.00234839
-0.00232369
-0.00229872
-0.00227346
-0.00224792
-0.0022221
-0.00219599
-0.00216959
-0.00214289
-0.00211589
-0.0020886
-0.002061
-0.00203309
-0.00200487
-0.00197633
-0.00194748
-0.00191831
-0.00188881
-0.00185898
-0.00182881
-0.00179831
-0.00176747
-0.00173629
-0.00170476
-0.00167287
-0.00164063
-0.00160803
-0.00157507
-0.00154174
-0.00150804
-0.00147396
-0.0014395
-0.00140466
-0.00136942
-0.0013338
-0.00129777
-0.00126135
-0.00122452
-0.00118727
-0.00114961
-0.00111155
-0.00107307
-0.00103412
-0.000994431
)
;

boundaryField
{
    BotWall
    {
        type            fixedFluxPressure;
        gradient        uniform 0;
        value           uniform 108.992;
    }
    FreeStream
    {
        type            totalPressure;
        rho             rho;
        psi             none;
        gamma           1;
        p0              uniform 0;
        value           uniform -0.000974372;
    }
    FrontNBack
    {
        type            empty;
    }
    LeftSide
    {
        type            symmetryPlane;
    }
    RightSide
    {
        type            symmetryPlane;
    }
}


// ************************************************************************* //
