/*--------------------------------*- C++ -*----------------------------------*\
| =========                 |                                                 |
| \\      /  F ield         | OpenFOAM: The Open Source CFD Toolbox           |
|  \\    /   O peration     | Version:  2012                                  |
|   \\  /    A nd           | Website:  www.openfoam.com                      |
|    \\/     M anipulation  |                                                 |
\*---------------------------------------------------------------------------*/
FoamFile
{
    version     2.0;
    format      ascii;
    class       surfaceScalarField;
    location    "0.02";
    object      phi;
}
// * * * * * * * * * * * * * * * * * * * * * * * * * * * * * * * * * * * * * //

dimensions      [0 3 -1 0 0 0 0];
oriented        oriented;


internalField   nonuniform List<scalar> 
99
(
-1.09403e-15
-1.46199e-08
-1.46199e-08
-1.46199e-08
-1.46199e-08
-1.46199e-08
-1.46199e-08
-1.46199e-08
-1.46199e-08
-1.46199e-08
-1.46199e-08
-1.46199e-08
-1.46199e-08
-1.46199e-08
-1.46199e-08
-1.46199e-08
-1.46199e-08
-1.46199e-08
-1.46199e-08
-1.46199e-08
-1.46199e-08
-1.46199e-08
-1.46199e-08
-1.46199e-08
-1.46199e-08
-1.46199e-08
-1.46199e-08
-1.46199e-08
-1.46199e-08
-1.46199e-08
-1.46199e-08
-1.46199e-08
-1.46199e-08
-1.46199e-08
-1.46199e-08
-1.46199e-08
-1.46199e-08
-1.46199e-08
-1.46199e-08
-1.46199e-08
-1.46199e-08
-1.46199e-08
-1.46199e-08
-1.46199e-08
-1.46199e-08
-1.46199e-08
-1.46199e-08
-1.46199e-08
-1.46199e-08
-1.46199e-08
-1.46199e-08
-1.46199e-08
-1.46199e-08
-1.46199e-08
-1.46199e-08
-1.46199e-08
-1.46199e-08
-1.46199e-08
-1.46199e-08
-1.46199e-08
-1.46199e-08
-1.46199e-08
-1.46199e-08
-1.46199e-08
-1.46199e-08
-1.46199e-08
-1.46199e-08
-1.46199e-08
-1.46199e-08
-1.46199e-08
-1.46199e-08
-1.46199e-08
-1.46199e-08
-1.46199e-08
-1.46199e-08
-1.46199e-08
-1.46199e-08
-1.46199e-08
-1.46199e-08
-1.46199e-08
-1.46199e-08
-1.46199e-08
-1.46199e-08
-1.46199e-08
-1.46199e-08
-1.46199e-08
-1.46199e-08
-1.46199e-08
-1.46199e-08
-1.46199e-08
-1.46199e-08
-1.46199e-08
-1.46199e-08
-1.46199e-08
-1.46199e-08
-1.46199e-08
-1.46199e-08
-1.46199e-08
-1.46199e-08
)
;

boundaryField
{
    BotWall
    {
        type            calculated;
        value           uniform 7.76946e-16;
    }
    FreeStream
    {
        type            calculated;
        value           uniform -1.46199e-08;
    }
    FrontNBack
    {
        type            empty;
        value           nonuniform List<scalar> 0();
    }
    LeftSide
    {
        type            symmetryPlane;
        value           uniform 0;
    }
    RightSide
    {
        type            symmetryPlane;
        value           uniform 0;
    }
}


// ************************************************************************* //
