/*--------------------------------*- C++ -*----------------------------------*\
| =========                 |                                                 |
| \\      /  F ield         | OpenFOAM: The Open Source CFD Toolbox           |
|  \\    /   O peration     | Version:  2012                                  |
|   \\  /    A nd           | Website:  www.openfoam.com                      |
|    \\/     M anipulation  |                                                 |
\*---------------------------------------------------------------------------*/
FoamFile
{
    version     2.0;
    format      ascii;
    class       volVectorField;
    location    "0.02";
    object      U;
}
// * * * * * * * * * * * * * * * * * * * * * * * * * * * * * * * * * * * * * //

dimensions      [0 1 -1 0 0 0 0];


internalField   nonuniform List<vector> 
100
(
(-1.09442e-24 0.000766474 0)
(-3.97258e-24 -0.00219673 0)
(-1.13935e-23 -0.0161449 0)
(-4.67791e-23 -0.0193245 0)
(-7.77959e-23 -0.0150302 0)
(-1.01637e-22 -0.0142936 0)
(-1.16851e-22 -0.0144879 0)
(-1.18004e-22 -0.0146185 0)
(-1.01364e-22 -0.0146335 0)
(-6.17322e-23 -0.0146236 0)
(-1.18788e-24 -0.0146195 0)
(-2.81056e-21 -0.0146193 0)
(-5.464e-21 -0.0146198 0)
(-4.82039e-21 -0.0146199 0)
(-7.23132e-21 -0.0146199 0)
(-9.42629e-21 -0.0146199 0)
(-8.37334e-21 -0.0146199 0)
(-7.40142e-21 -0.0146199 0)
(-6.55536e-21 -0.0146199 0)
(-5.79096e-21 -0.0146199 0)
(-5.07001e-21 -0.0146199 0)
(-4.45016e-21 -0.0146199 0)
(-6.74556e-21 -0.0146199 0)
(-8.87751e-21 -0.0146199 0)
(-7.80622e-21 -0.0146199 0)
(-6.83056e-21 -0.0146199 0)
(-5.90421e-21 -0.0146199 0)
(-5.10982e-21 -0.0146199 0)
(-4.37994e-21 -0.0146199 0)
(-3.7118e-21 -0.0146199 0)
(-3.10549e-21 -0.0146199 0)
(-2.54784e-21 -0.0146199 0)
(-2.02429e-21 -0.0146199 0)
(-1.58738e-21 -0.0146199 0)
(-1.29083e-21 -0.0146199 0)
(-1.63238e-21 -0.0146199 0)
(-5.59208e-21 -0.0146199 0)
(-9.05859e-21 -0.0146199 0)
(-8.2228e-21 -0.0146199 0)
(-6.98685e-21 -0.0146199 0)
(-5.81956e-21 -0.0146199 0)
(-4.78295e-21 -0.0146199 0)
(-3.85425e-21 -0.0146199 0)
(-3.02899e-21 -0.0146199 0)
(-2.31827e-21 -0.0146199 0)
(-1.64434e-21 -0.0146199 0)
(-1.00868e-21 -0.0146199 0)
(4.29206e-21 -0.0146199 0)
(8.96862e-21 -0.0146199 0)
(8.07426e-21 -0.0146199 0)
(7.32135e-21 -0.0146199 0)
(6.63073e-21 -0.0146199 0)
(6.02325e-21 -0.0146199 0)
(5.47903e-21 -0.0146199 0)
(5.01338e-21 -0.0146199 0)
(4.58605e-21 -0.0146199 0)
(4.20081e-21 -0.0146199 0)
(3.87613e-21 -0.0146199 0)
(3.58765e-21 -0.0146199 0)
(3.31972e-21 -0.0146199 0)
(3.06501e-21 -0.0146199 0)
(-2.58417e-21 -0.0146199 0)
(-2.51339e-21 -0.0146199 0)
(2.91348e-21 -0.0146199 0)
(2.30864e-21 -0.0146199 0)
(1.87287e-21 -0.0146199 0)
(1.44541e-21 -0.0146199 0)
(9.93399e-22 -0.0146199 0)
(4.49162e-22 -0.0146199 0)
(-1.71936e-22 -0.0146199 0)
(4.37963e-21 -0.0146199 0)
(8.23358e-21 -0.0146199 0)
(6.02118e-21 -0.0146199 0)
(4.33799e-21 -0.0146199 0)
(2.9161e-21 -0.0146199 0)
(1.64908e-21 -0.0146199 0)
(5.30893e-22 -0.0146199 0)
(4.44843e-21 -0.0146199 0)
(7.69288e-21 -0.0146199 0)
(5.21195e-21 -0.0146199 0)
(-1.7436e-21 -0.0146199 0)
(-7.60732e-21 -0.0146199 0)
(-7.52653e-21 -0.0146199 0)
(-7.58578e-21 -0.0146199 0)
(-7.75352e-21 -0.0146199 0)
(-8.01307e-21 -0.0146199 0)
(-8.34763e-21 -0.0146199 0)
(-8.78356e-21 -0.0146199 0)
(-9.23383e-21 -0.0146199 0)
(-9.76245e-21 -0.0146199 0)
(-1.03644e-20 -0.0146199 0)
(-1.11002e-20 -0.0146199 0)
(-1.18892e-20 -0.0146199 0)
(-2.2655e-20 -0.0146199 0)
(-3.18515e-20 -0.0146199 0)
(-2.89705e-20 -0.0146199 0)
(-2.66588e-20 -0.0146199 0)
(-2.51435e-20 -0.0146199 0)
(-2.43712e-20 -0.0146199 0)
(-2.40268e-20 -0.0146197 0)
)
;

boundaryField
{
    BotWall
    {
        type            fixedValue;
        value           uniform (0 0 0);
    }
    FreeStream
    {
        type            zeroGradient;
    }
    FrontNBack
    {
        type            empty;
    }
    LeftSide
    {
        type            symmetryPlane;
    }
    RightSide
    {
        type            symmetryPlane;
    }
}


// ************************************************************************* //
