/*--------------------------------*- C++ -*----------------------------------*\
| =========                 |                                                 |
| \\      /  F ield         | OpenFOAM: The Open Source CFD Toolbox           |
|  \\    /   O peration     | Version:  2012                                  |
|   \\  /    A nd           | Website:  www.openfoam.com                      |
|    \\/     M anipulation  |                                                 |
\*---------------------------------------------------------------------------*/
FoamFile
{
    version     2.0;
    format      ascii;
    class       volScalarField;
    location    "0.03";
    object      H;
}
// * * * * * * * * * * * * * * * * * * * * * * * * * * * * * * * * * * * * * //

dimensions      [0 2 -2 0 0 0 0];


internalField   nonuniform List<scalar> 
100
(
-8284.92
-140.318
-45.105
-44.8601
-44.6243
-44.3395
-43.9917
-43.5695
-43.0642
-42.4696
-41.7819
-40.9998
-40.1238
-39.1567
-38.1029
-36.9684
-35.7603
-34.4872
-33.1582
-31.783
-30.3718
-28.9347
-27.482
-26.0235
-24.5685
-23.1261
-21.7043
-20.3106
-18.9515
-17.6327
-16.3592
-15.1349
-13.963
-12.8458
-11.7852
-10.7819
-9.83647
-8.94872
-8.11804
-7.3434
-6.62345
-5.95654
-5.3408
-4.77417
-4.25445
-3.77934
-3.34646
-2.95339
-2.59771
-2.27698
-1.9888
-1.73082
-1.50072
-1.29629
-1.11535
-0.955864
-0.815847
-0.69344
-0.586885
-0.494536
-0.414856
-0.346424
-0.287926
-0.23816
-0.196031
-0.160546
-0.13081
-0.106022
-0.085471
-0.0685252
-0.0546308
-0.0433037
-0.0341237
-0.0267283
-0.0208072
-0.0160962
-0.0123719
-0.00944699
-0.00716518
-0.00539727
-0.00403708
-0.00299804
-0.00221012
-0.00161707
-0.0011741
-0.000845786
-0.000604387
-0.000428325
-0.000300971
-0.00020962
-0.000144644
-9.88194e-05
-6.67691e-05
-4.45308e-05
-2.92105e-05
-1.87143e-05
-1.15411e-05
-6.62468e-06
-3.21461e-06
-1.05143e-06
)
;

boundaryField
{
    BotWall
    {
        type            zeroGradient;
    }
    FreeStream
    {
        type            zeroGradient;
    }
    FrontNBack
    {
        type            empty;
    }
    LeftSide
    {
        type            symmetryPlane;
    }
    RightSide
    {
        type            symmetryPlane;
    }
}


// ************************************************************************* //
