/*--------------------------------*- C++ -*----------------------------------*\
| =========                 |                                                 |
| \\      /  F ield         | OpenFOAM: The Open Source CFD Toolbox           |
|  \\    /   O peration     | Version:  2012                                  |
|   \\  /    A nd           | Website:  www.openfoam.com                      |
|    \\/     M anipulation  |                                                 |
\*---------------------------------------------------------------------------*/
FoamFile
{
    version     2.0;
    format      ascii;
    class       volScalarField;
    location    "0.03";
    object      p;
}
// * * * * * * * * * * * * * * * * * * * * * * * * * * * * * * * * * * * * * //

dimensions      [1 -1 -2 0 0 0 0];


internalField   nonuniform List<scalar> 
100
(
51.2516
-0.419582
-0.0455188
0.00873654
-0.000912693
-0.00650604
-0.00744177
-0.00756218
-0.00793488
-0.00846129
-0.00900765
-0.00954864
-0.0100912
-0.0106398
-0.0111949
-0.0117564
-0.0123242
-0.0128982
-0.0134787
-0.0140656
-0.0146591
-0.0152592
-0.015866
-0.0164796
-0.0171
-0.0177273
-0.0183617
-0.0190031
-0.0196517
-0.0203075
-0.0209706
-0.0216411
-0.0223192
-0.0230047
-0.023698
-0.0243989
-0.0251077
-0.0258244
-0.0265491
-0.0272819
-0.0280229
-0.0287721
-0.0295297
-0.0302957
-0.0310703
-0.0318536
-0.0326455
-0.0334464
-0.0342561
-0.0350749
-0.0359028
-0.03674
-0.0375865
-0.0384424
-0.0393079
-0.0401831
-0.041068
-0.0419628
-0.0428676
-0.0437825
-0.0447076
-0.045643
-0.0465888
-0.0475452
-0.0485123
-0.0494902
-0.050479
-0.0514788
-0.0524897
-0.053512
-0.0545457
-0.0555909
-0.0566477
-0.0577164
-0.0587969
-0.0598896
-0.0609944
-0.0621116
-0.0632412
-0.0643834
-0.0655384
-0.0667062
-0.0678871
-0.0690812
-0.0702886
-0.0715095
-0.072744
-0.0739922
-0.0752544
-0.0765307
-0.0778212
-0.0791261
-0.0804456
-0.0817798
-0.0831289
-0.0844931
-0.0858725
-0.0872673
-0.0886776
-0.0901033
)
;

boundaryField
{
    BotWall
    {
        type            calculated;
        value           uniform 51.2664;
    }
    FreeStream
    {
        type            calculated;
        value           uniform -0.09082;
    }
    FrontNBack
    {
        type            empty;
    }
    LeftSide
    {
        type            symmetryPlane;
    }
    RightSide
    {
        type            symmetryPlane;
    }
}


// ************************************************************************* //
