/*--------------------------------*- C++ -*----------------------------------*\
| =========                 |                                                 |
| \\      /  F ield         | OpenFOAM: The Open Source CFD Toolbox           |
|  \\    /   O peration     | Version:  2012                                  |
|   \\  /    A nd           | Website:  www.openfoam.com                      |
|    \\/     M anipulation  |                                                 |
\*---------------------------------------------------------------------------*/
FoamFile
{
    version     2.0;
    format      ascii;
    class       volScalarField;
    location    "0.03";
    object      p_rgh;
}
// * * * * * * * * * * * * * * * * * * * * * * * * * * * * * * * * * * * * * //

dimensions      [1 -1 -2 0 0 0 0];


internalField   nonuniform List<scalar> 
100
(
51.2664
-0.377404
-0.0442773
0.0104797
0.00134088
-0.00373635
-0.00415022
-0.00374294
-0.00358206
-0.00356894
-0.00356975
-0.0035591
-0.00354385
-0.00352842
-0.00351327
-0.00349807
-0.0034827
-0.00346712
-0.00345138
-0.00343546
-0.00341936
-0.00340308
-0.00338662
-0.00336997
-0.00335314
-0.00333613
-0.00331892
-0.00330152
-0.00328393
-0.00326614
-0.00324815
-0.00322996
-0.00321157
-0.00319297
-0.00317417
-0.00315516
-0.00313593
-0.00311649
-0.00309683
-0.00307695
-0.00305685
-0.00303653
-0.00301598
-0.0029952
-0.00297419
-0.00295294
-0.00293146
-0.00290974
-0.00288777
-0.00286557
-0.00284311
-0.0028204
-0.00279743
-0.00277422
-0.00275074
-0.002727
-0.002703
-0.00267872
-0.00265418
-0.00262937
-0.00260427
-0.0025789
-0.00255324
-0.0025273
-0.00250106
-0.00247454
-0.00244772
-0.0024206
-0.00239318
-0.00236544
-0.00233741
-0.00230906
-0.00228039
-0.0022514
-0.00222209
-0.00219245
-0.00216248
-0.00213218
-0.00210153
-0.00207055
-0.00203922
-0.00200754
-0.00197551
-0.00194312
-0.00191037
-0.00187725
-0.00184377
-0.00180991
-0.00177567
-0.00174105
-0.00170604
-0.00167064
-0.00163485
-0.00159866
-0.00156206
-0.00152506
-0.00148766
-0.00144986
-0.00141158
-0.00137252
)
;

boundaryField
{
    BotWall
    {
        type            fixedFluxPressure;
        gradient        uniform 0;
        value           uniform 51.2664;
    }
    FreeStream
    {
        type            totalPressure;
        rho             rho;
        psi             none;
        gamma           1;
        p0              uniform 0;
        value           uniform -0.00135276;
    }
    FrontNBack
    {
        type            empty;
    }
    LeftSide
    {
        type            symmetryPlane;
    }
    RightSide
    {
        type            symmetryPlane;
    }
}


// ************************************************************************* //
