/*--------------------------------*- C++ -*----------------------------------*\
| =========                 |                                                 |
| \\      /  F ield         | OpenFOAM: The Open Source CFD Toolbox           |
|  \\    /   O peration     | Version:  2012                                  |
|   \\  /    A nd           | Website:  www.openfoam.com                      |
|    \\/     M anipulation  |                                                 |
\*---------------------------------------------------------------------------*/
FoamFile
{
    version     2.0;
    format      ascii;
    class       volVectorField;
    location    "0.03";
    object      U;
}
// * * * * * * * * * * * * * * * * * * * * * * * * * * * * * * * * * * * * * //

dimensions      [0 1 -1 0 0 0 0];


internalField   nonuniform List<vector> 
100
(
(4.13416e-24 0.00138881 0)
(1.27012e-23 -0.0030889 0)
(2.98391e-23 -0.0173993 0)
(1.81968e-22 -0.02447 0)
(3.28619e-22 -0.0178001 0)
(4.73089e-22 -0.0167365 0)
(6.3649e-22 -0.017033 0)
(8.08178e-22 -0.0172249 0)
(9.77163e-22 -0.017246 0)
(1.08955e-21 -0.0172312 0)
(1.03677e-21 -0.0172253 0)
(-2.047e-21 -0.0172251 0)
(-4.9584e-21 -0.0172258 0)
(-4.41814e-21 -0.0172259 0)
(-6.88058e-21 -0.0172259 0)
(-9.02347e-21 -0.0172259 0)
(-7.83826e-21 -0.0172259 0)
(-6.68227e-21 -0.0172259 0)
(-5.74097e-21 -0.0172259 0)
(-4.94909e-21 -0.0172259 0)
(-4.2191e-21 -0.0172259 0)
(-3.40237e-21 -0.0172259 0)
(-6.02675e-21 -0.0172259 0)
(-8.43077e-21 -0.0172259 0)
(-7.10146e-21 -0.0172259 0)
(-6.10137e-21 -0.0172259 0)
(-5.18383e-21 -0.0172259 0)
(-4.38786e-21 -0.0172259 0)
(-3.67786e-21 -0.0172259 0)
(-3.03327e-21 -0.0172259 0)
(-2.50547e-21 -0.0172259 0)
(-2.04205e-21 -0.0172259 0)
(-1.62785e-21 -0.0172259 0)
(-1.21399e-21 -0.0172259 0)
(-6.42586e-22 -0.0172259 0)
(3.28751e-22 -0.0172259 0)
(-6.58317e-21 -0.0172259 0)
(-1.27576e-20 -0.0172259 0)
(-1.02125e-20 -0.0172259 0)
(-8.4742e-21 -0.0172259 0)
(-7.18668e-21 -0.0172259 0)
(-6.07647e-21 -0.0172259 0)
(-5.21982e-21 -0.0172259 0)
(-4.49969e-21 -0.0172259 0)
(-3.91761e-21 -0.0172259 0)
(-3.4402e-21 -0.0172259 0)
(-2.98354e-21 -0.0172259 0)
(3.14857e-21 -0.0172259 0)
(8.51752e-21 -0.0172259 0)
(6.98751e-21 -0.0172259 0)
(5.56455e-21 -0.0172259 0)
(4.32704e-21 -0.0172259 0)
(3.29583e-21 -0.0172259 0)
(2.3937e-21 -0.0172259 0)
(1.53801e-21 -0.0172259 0)
(8.35498e-22 -0.0172259 0)
(1.97127e-22 -0.0172259 0)
(-4.05432e-22 -0.0172259 0)
(-9.46237e-22 -0.0172259 0)
(-1.50854e-21 -0.0172259 0)
(-1.97946e-21 -0.0172259 0)
(-8.21011e-21 -0.0172259 0)
(-7.96015e-21 -0.0172259 0)
(-1.33211e-21 -0.0172259 0)
(-2.01838e-21 -0.0172259 0)
(-2.74594e-21 -0.0172259 0)
(-3.47102e-21 -0.0172259 0)
(-4.08771e-21 -0.0172259 0)
(-4.69792e-21 -0.0172259 0)
(-5.47903e-21 -0.0172259 0)
(-3.36185e-22 -0.0172259 0)
(3.8832e-21 -0.0172259 0)
(9.60911e-22 -0.0172259 0)
(-1.15904e-21 -0.0172259 0)
(-3.03316e-21 -0.0172259 0)
(-4.77172e-21 -0.0172259 0)
(-6.15095e-21 -0.0172259 0)
(-1.63263e-21 -0.0172259 0)
(2.15489e-21 -0.0172259 0)
(-1.07403e-21 -0.0172259 0)
(-9.5622e-21 -0.0172259 0)
(-1.67003e-20 -0.0172259 0)
(-1.64753e-20 -0.0172259 0)
(-1.65294e-20 -0.0172259 0)
(-1.67868e-20 -0.0172259 0)
(-1.71619e-20 -0.0172259 0)
(-1.76563e-20 -0.0172259 0)
(-1.82461e-20 -0.0172259 0)
(-1.89166e-20 -0.0172259 0)
(-1.96611e-20 -0.0172259 0)
(-2.04778e-20 -0.0172259 0)
(-2.14229e-20 -0.0172259 0)
(-2.24315e-20 -0.0172259 0)
(-3.4929e-20 -0.0172259 0)
(-4.53476e-20 -0.0172259 0)
(-4.14763e-20 -0.0172259 0)
(-3.83795e-20 -0.0172259 0)
(-3.64548e-20 -0.0172259 0)
(-3.5524e-20 -0.017226 0)
(-3.51162e-20 -0.0172257 0)
)
;

boundaryField
{
    BotWall
    {
        type            fixedValue;
        value           uniform (0 0 0);
    }
    FreeStream
    {
        type            zeroGradient;
    }
    FrontNBack
    {
        type            empty;
    }
    LeftSide
    {
        type            symmetryPlane;
    }
    RightSide
    {
        type            symmetryPlane;
    }
}


// ************************************************************************* //
