/*--------------------------------*- C++ -*----------------------------------*\
| =========                 |                                                 |
| \\      /  F ield         | OpenFOAM: The Open Source CFD Toolbox           |
|  \\    /   O peration     | Version:  2012                                  |
|   \\  /    A nd           | Website:  www.openfoam.com                      |
|    \\/     M anipulation  |                                                 |
\*---------------------------------------------------------------------------*/
FoamFile
{
    version     2.0;
    format      ascii;
    class       volScalarField;
    location    "0.04";
    object      H;
}
// * * * * * * * * * * * * * * * * * * * * * * * * * * * * * * * * * * * * * //

dimensions      [0 2 -2 0 0 0 0];


internalField   nonuniform List<scalar> 
100
(
-10273.5
-6327.92
-337.05
-256.433
-257.356
-257.282
-256.205
-254.149
-251.149
-247.243
-242.48
-236.913
-230.601
-223.611
-216.011
-207.876
-199.281
-190.307
-181.031
-171.534
-161.894
-152.189
-142.491
-132.871
-123.395
-114.123
-105.111
-96.4061
-88.0516
-80.0824
-72.5268
-65.4064
-58.7361
-52.5242
-46.7731
-41.4796
-36.6353
-32.2275
-28.2396
-24.6517
-21.4416
-18.5851
-16.0568
-13.8305
-11.88
-10.1792
-8.70312
-7.42742
-6.32931
-5.38744
-4.58215
-3.89549
-3.31128
-2.81505
-2.39403
-2.037
-1.73424
-1.47737
-1.25923
-1.07373
-0.915742
-0.780966
-0.665796
-0.567227
-0.482756
-0.410296
-0.348105
-0.294724
-0.248924
-0.209665
-0.176063
-0.147356
-0.122892
-0.1021
-0.0844871
-0.0696189
-0.057116
-0.0466456
-0.0379153
-0.0306694
-0.0246842
-0.0197649
-0.0157423
-0.0124703
-0.00982326
-0.00769367
-0.00599002
-0.00463492
-0.00356328
-0.0027207
-0.00206197
-0.00154977
-0.00115347
-0.000848108
-0.000613405
-0.000433018
-0.000293813
-0.000185268
-9.89649e-05
-3.24813e-05
)
;

boundaryField
{
    BotWall
    {
        type            zeroGradient;
    }
    FreeStream
    {
        type            zeroGradient;
    }
    FrontNBack
    {
        type            empty;
    }
    LeftSide
    {
        type            symmetryPlane;
    }
    RightSide
    {
        type            symmetryPlane;
    }
}


// ************************************************************************* //
