/*--------------------------------*- C++ -*----------------------------------*\
| =========                 |                                                 |
| \\      /  F ield         | OpenFOAM: The Open Source CFD Toolbox           |
|  \\    /   O peration     | Version:  2012                                  |
|   \\  /    A nd           | Website:  www.openfoam.com                      |
|    \\/     M anipulation  |                                                 |
\*---------------------------------------------------------------------------*/
FoamFile
{
    version     2.0;
    format      ascii;
    class       volScalarField;
    location    "0.04";
    object      p;
}
// * * * * * * * * * * * * * * * * * * * * * * * * * * * * * * * * * * * * * //

dimensions      [1 -1 -2 0 0 0 0];


internalField   nonuniform List<scalar> 
100
(
0.0445867
0.0335242
-0.0741587
-0.00956053
0.000557814
-0.00255676
-0.00448764
-0.00511782
-0.00552939
-0.00602127
-0.00656249
-0.00711361
-0.00766732
-0.00822585
-0.00879063
-0.00936184
-0.00993947
-0.0105235
-0.0111141
-0.0117113
-0.0123151
-0.0129257
-0.0135431
-0.0141674
-0.0147986
-0.0154369
-0.0160823
-0.0167349
-0.0173948
-0.0180621
-0.0187368
-0.019419
-0.0201089
-0.0208064
-0.0215117
-0.0222249
-0.0229461
-0.0236753
-0.0244126
-0.0251582
-0.0259121
-0.0266744
-0.0274452
-0.0282246
-0.0290127
-0.0298096
-0.0306154
-0.0314302
-0.0322541
-0.0330872
-0.0339295
-0.0347813
-0.0356426
-0.0365134
-0.037394
-0.0382845
-0.0391848
-0.0400953
-0.0410158
-0.0419467
-0.0428879
-0.0438396
-0.044802
-0.0457751
-0.046759
-0.047754
-0.04876
-0.0497772
-0.0508059
-0.0518459
-0.0528976
-0.0539611
-0.0550364
-0.0561237
-0.0572231
-0.0583348
-0.0594589
-0.0605955
-0.0617449
-0.062907
-0.0640821
-0.0652704
-0.0664719
-0.0676868
-0.0689152
-0.0701574
-0.0714134
-0.0726835
-0.0739677
-0.0752663
-0.0765793
-0.077907
-0.0792495
-0.080607
-0.0819796
-0.0833676
-0.084771
-0.0861901
-0.0876251
-0.0890759
)
;

boundaryField
{
    BotWall
    {
        type            calculated;
        value           uniform 0.059407;
    }
    FreeStream
    {
        type            calculated;
        value           uniform -0.0898054;
    }
    FrontNBack
    {
        type            empty;
    }
    LeftSide
    {
        type            symmetryPlane;
    }
    RightSide
    {
        type            symmetryPlane;
    }
}


// ************************************************************************* //
