/*--------------------------------*- C++ -*----------------------------------*\
| =========                 |                                                 |
| \\      /  F ield         | OpenFOAM: The Open Source CFD Toolbox           |
|  \\    /   O peration     | Version:  2012                                  |
|   \\  /    A nd           | Website:  www.openfoam.com                      |
|    \\/     M anipulation  |                                                 |
\*---------------------------------------------------------------------------*/
FoamFile
{
    version     2.0;
    format      ascii;
    class       volScalarField;
    location    "0.04";
    object      p_rgh;
}
// * * * * * * * * * * * * * * * * * * * * * * * * * * * * * * * * * * * * * //

dimensions      [1 -1 -2 0 0 0 0];


internalField   nonuniform List<scalar> 
100
(
0.059407
0.0781505
-0.059235
-0.00781737
0.00281139
0.000212927
-0.00119609
-0.00129858
-0.00117657
-0.00112892
-0.00112459
-0.00112407
-0.00111998
-0.00111449
-0.00110895
-0.00110349
-0.00109801
-0.00109246
-0.00108684
-0.00108116
-0.00107541
-0.00106961
-0.00106373
-0.00105779
-0.00105179
-0.00104572
-0.00103958
-0.00103337
-0.00102709
-0.00102075
-0.00101433
-0.00100784
-0.00100128
-0.000994643
-0.000987934
-0.00098115
-0.00097429
-0.000967354
-0.00096034
-0.000953248
-0.000946077
-0.000938826
-0.000931494
-0.00092408
-0.000916583
-0.000909003
-0.000901338
-0.000893588
-0.000885751
-0.000877827
-0.000869814
-0.000861712
-0.000853519
-0.000845235
-0.000836859
-0.000828389
-0.000819825
-0.000811165
-0.000802408
-0.000793554
-0.000784601
-0.000775547
-0.000766393
-0.000757137
-0.000747778
-0.000738314
-0.000728744
-0.000719068
-0.000709284
-0.00069939
-0.000689386
-0.000679271
-0.000669042
-0.0006587
-0.000648242
-0.000637667
-0.000626975
-0.000616163
-0.00060523
-0.000594175
-0.000582997
-0.000571694
-0.000560266
-0.000548709
-0.000537024
-0.000525208
-0.000513261
-0.00050118
-0.000488964
-0.000476612
-0.000464122
-0.000451493
-0.000438723
-0.00042581
-0.000412753
-0.00039955
-0.000386203
-0.000372709
-0.000359055
-0.000345186
)
;

boundaryField
{
    BotWall
    {
        type            fixedFluxPressure;
        gradient        uniform 0;
        value           uniform 0.059407;
    }
    FreeStream
    {
        type            totalPressure;
        rho             rho;
        psi             none;
        gamma           1;
        p0              uniform 0;
        value           uniform -0.000338192;
    }
    FrontNBack
    {
        type            empty;
    }
    LeftSide
    {
        type            symmetryPlane;
    }
    RightSide
    {
        type            symmetryPlane;
    }
}


// ************************************************************************* //
