/*--------------------------------*- C++ -*----------------------------------*\
| =========                 |                                                 |
| \\      /  F ield         | OpenFOAM: The Open Source CFD Toolbox           |
|  \\    /   O peration     | Version:  2012                                  |
|   \\  /    A nd           | Website:  www.openfoam.com                      |
|    \\/     M anipulation  |                                                 |
\*---------------------------------------------------------------------------*/
FoamFile
{
    version     2.0;
    format      ascii;
    class       surfaceScalarField;
    location    "0.04";
    object      phi;
}
// * * * * * * * * * * * * * * * * * * * * * * * * * * * * * * * * * * * * * //

dimensions      [0 3 -1 0 0 0 0];
oriented        oriented;


internalField   nonuniform List<scalar> 
99
(
-9.4643e-22
-3.17027e-21
-8.61265e-09
-8.61265e-09
-8.61265e-09
-8.61265e-09
-8.61265e-09
-8.61265e-09
-8.61265e-09
-8.61265e-09
-8.61265e-09
-8.61265e-09
-8.61265e-09
-8.61265e-09
-8.61265e-09
-8.61265e-09
-8.61265e-09
-8.61265e-09
-8.61265e-09
-8.61265e-09
-8.61265e-09
-8.61265e-09
-8.61265e-09
-8.61265e-09
-8.61265e-09
-8.61265e-09
-8.61265e-09
-8.61265e-09
-8.61265e-09
-8.61265e-09
-8.61265e-09
-8.61265e-09
-8.61265e-09
-8.61265e-09
-8.61265e-09
-8.61265e-09
-8.61265e-09
-8.61265e-09
-8.61265e-09
-8.61265e-09
-8.61265e-09
-8.61265e-09
-8.61265e-09
-8.61265e-09
-8.61265e-09
-8.61265e-09
-8.61265e-09
-8.61265e-09
-8.61265e-09
-8.61265e-09
-8.61265e-09
-8.61265e-09
-8.61265e-09
-8.61265e-09
-8.61265e-09
-8.61265e-09
-8.61265e-09
-8.61265e-09
-8.61265e-09
-8.61265e-09
-8.61265e-09
-8.61265e-09
-8.61265e-09
-8.61265e-09
-8.61265e-09
-8.61265e-09
-8.61265e-09
-8.61265e-09
-8.61265e-09
-8.61265e-09
-8.61265e-09
-8.61265e-09
-8.61265e-09
-8.61265e-09
-8.61265e-09
-8.61265e-09
-8.61265e-09
-8.61265e-09
-8.61265e-09
-8.61265e-09
-8.61265e-09
-8.61265e-09
-8.61265e-09
-8.61265e-09
-8.61265e-09
-8.61265e-09
-8.61265e-09
-8.61265e-09
-8.61265e-09
-8.61265e-09
-8.61265e-09
-8.61265e-09
-8.61265e-09
-8.61265e-09
-8.61265e-09
-8.61265e-09
-8.61265e-09
-8.61265e-09
-8.61265e-09
)
;

boundaryField
{
    BotWall
    {
        type            calculated;
        value           uniform 8.70573e-22;
    }
    FreeStream
    {
        type            calculated;
        value           uniform -8.61265e-09;
    }
    FrontNBack
    {
        type            empty;
        value           nonuniform List<scalar> 0();
    }
    LeftSide
    {
        type            symmetryPlane;
        value           uniform 0;
    }
    RightSide
    {
        type            symmetryPlane;
        value           uniform 0;
    }
}


// ************************************************************************* //
