/*--------------------------------*- C++ -*----------------------------------*\
| =========                 |                                                 |
| \\      /  F ield         | OpenFOAM: The Open Source CFD Toolbox           |
|  \\    /   O peration     | Version:  2012                                  |
|   \\  /    A nd           | Website:  www.openfoam.com                      |
|    \\/     M anipulation  |                                                 |
\*---------------------------------------------------------------------------*/
FoamFile
{
    version     2.0;
    format      ascii;
    class       volVectorField;
    location    "0.04";
    object      U;
}
// * * * * * * * * * * * * * * * * * * * * * * * * * * * * * * * * * * * * * //

dimensions      [0 1 -1 0 0 0 0];


internalField   nonuniform List<vector> 
100
(
(4.19498e-25 -5.75556e-05 0)
(1.29649e-24 0.000203868 0)
(2.98013e-24 -0.00113364 0)
(1.10499e-23 -0.0102755 0)
(3.25852e-23 -0.0105011 0)
(5.42284e-23 -0.0087712 0)
(7.44103e-23 -0.00846822 0)
(9.04556e-23 -0.00855645 0)
(9.59732e-23 -0.00861277 0)
(8.62096e-23 -0.00861875 0)
(5.87638e-23 -0.00861428 0)
(-1.48796e-21 -0.00861245 0)
(-2.99358e-21 -0.00861242 0)
(-2.90143e-21 -0.00861261 0)
(-4.35333e-21 -0.00861267 0)
(-5.77703e-21 -0.00861266 0)
(-5.46354e-21 -0.00861265 0)
(-5.12876e-21 -0.00861265 0)
(-4.78694e-21 -0.00861265 0)
(-4.45714e-21 -0.00861265 0)
(-4.13605e-21 -0.00861265 0)
(-3.76148e-21 -0.00861265 0)
(-5.13931e-21 -0.00861265 0)
(-6.42138e-21 -0.00861265 0)
(-5.90079e-21 -0.00861265 0)
(-5.48127e-21 -0.00861265 0)
(-5.11666e-21 -0.00861265 0)
(-4.7818e-21 -0.00861265 0)
(-4.45627e-21 -0.00861265 0)
(-4.16238e-21 -0.00861265 0)
(-3.88952e-21 -0.00861265 0)
(-3.63875e-21 -0.00861265 0)
(-3.40886e-21 -0.00861265 0)
(-3.1973e-21 -0.00861265 0)
(-2.99112e-21 -0.00861265 0)
(-2.76682e-21 -0.00861265 0)
(-5.94479e-21 -0.00861265 0)
(-8.98888e-21 -0.00861265 0)
(-8.34137e-21 -0.00861265 0)
(-7.80864e-21 -0.00861265 0)
(-7.34918e-21 -0.00861265 0)
(-6.93105e-21 -0.00861265 0)
(-6.58072e-21 -0.00861265 0)
(-6.2744e-21 -0.00861265 0)
(-6.01059e-21 -0.00861265 0)
(-5.78336e-21 -0.00861265 0)
(-5.54055e-21 -0.00861265 0)
(-2.23361e-21 -0.00861265 0)
(8.52064e-22 -0.00861265 0)
(4.21141e-22 -0.00861265 0)
(-4.49312e-23 -0.00861265 0)
(-5.09276e-22 -0.00861265 0)
(-9.89011e-22 -0.00861265 0)
(-1.44736e-21 -0.00861265 0)
(-1.90586e-21 -0.00861265 0)
(-2.36985e-21 -0.00861265 0)
(-2.82756e-21 -0.00861265 0)
(-3.29076e-21 -0.00861265 0)
(-3.78497e-21 -0.00861265 0)
(-4.25989e-21 -0.00861265 0)
(-4.73161e-21 -0.00861265 0)
(-8.46561e-21 -0.00861265 0)
(-8.8235e-21 -0.00861265 0)
(-5.84055e-21 -0.00861265 0)
(-6.48907e-21 -0.00861265 0)
(-7.10591e-21 -0.00861265 0)
(-7.7108e-21 -0.00861265 0)
(-8.33234e-21 -0.00861265 0)
(-9.0071e-21 -0.00861265 0)
(-9.68516e-21 -0.00861265 0)
(-7.2293e-21 -0.00861265 0)
(-5.04831e-21 -0.00861265 0)
(-6.46193e-21 -0.00861265 0)
(-7.80889e-21 -0.00861265 0)
(-9.09789e-21 -0.00861265 0)
(-1.04109e-20 -0.00861265 0)
(-1.16445e-20 -0.00861265 0)
(-9.73183e-21 -0.00861265 0)
(-8.06099e-21 -0.00861265 0)
(-9.94453e-21 -0.00861265 0)
(-1.47166e-20 -0.00861265 0)
(-1.9333e-20 -0.00861265 0)
(-2.0204e-20 -0.00861265 0)
(-2.10515e-20 -0.00861265 0)
(-2.19287e-20 -0.00861265 0)
(-2.28143e-20 -0.00861265 0)
(-2.37038e-20 -0.00861265 0)
(-2.46404e-20 -0.00861265 0)
(-2.55192e-20 -0.00861265 0)
(-2.63967e-20 -0.00861265 0)
(-2.72885e-20 -0.00861265 0)
(-2.81881e-20 -0.00861265 0)
(-2.89793e-20 -0.00861265 0)
(-3.59999e-20 -0.00861265 0)
(-4.25044e-20 -0.00861265 0)
(-4.16721e-20 -0.00861265 0)
(-4.10653e-20 -0.00861265 0)
(-4.06405e-20 -0.00861266 0)
(-4.03943e-20 -0.00861267 0)
(-4.02781e-20 -0.00861262 0)
)
;

boundaryField
{
    BotWall
    {
        type            fixedValue;
        value           uniform (0 0 0);
    }
    FreeStream
    {
        type            zeroGradient;
    }
    FrontNBack
    {
        type            empty;
    }
    LeftSide
    {
        type            symmetryPlane;
    }
    RightSide
    {
        type            symmetryPlane;
    }
}


// ************************************************************************* //
